2
 energy: -0.982686139534 gnorm: 0.000194791810 xtb: 6.5.1 (579679afd673b20e6dc6e238ecc19db70941731f)
H            0.00000000000000        0.00000000000000       -0.01848467369616
H            0.00000000000000        0.00000000000000        0.75848467369616
