[Molden Format]
[Title]
[Atoms] AU
H      1     1  0.00000000000000E+00  0.00000000000000E+00  0.00000000000000E+00
H      2     1  0.00000000000000E+00  0.00000000000000E+00  0.13983973322191E+01
[GTO]
           1 0
 s           3   1.0000000000000000     
   3.3702276975336001       0.27359110588908298     
  0.61389118221497996       0.26460540653860526     
  0.16614291148415999        8.2465947534082318E-002

           2 0
 s           3   1.0000000000000000     
   3.3702276975336001       0.27359110588908298     
  0.61389118221497996       0.26460540653860526     
  0.16614291148415999        8.2465947534082318E-002

[MO]
Sym=     1a
Ene=  -0.47111593209541625     
Spin= Alpha
Occup=     2.00000000
           1 -0.54819760887738767     
           2 -0.54819760887286173     
Sym=     2a
Ene=   0.18619482381251495     
Spin= Alpha
Occup=     0.00000000
           1   1.2194747499532770     
           2  -1.2194747499553116     
