2
 energy: NaN gnorm: NaN xtb: 6.7.1 (edcfbbe)
H            0.00000000000000        0.00000000000000        0.00000000000000
H            0.00000000000000        0.00000000000000        0.74000000000000
